LAMMPS (22 Jul 2025 - Update 4)
OMP_NUM_THREADS environment is not set. Defaulting to 1 thread.
  using 1 OpenMP thread(s) per MPI task
clear
OMP_NUM_THREADS environment is not set. Defaulting to 1 thread.
  using 1 OpenMP thread(s) per MPI task
units           metal
atom_style      atomic
atom_modify     map yes
boundary        p p p

variable        runid index 1

read_restart    outputs/cascade_SiC_${runid}.restart
read_restart    outputs/cascade_SiC_1.restart
Reading restart file ...
  restart file = 22 Jul 2025, LAMMPS = 22 Jul 2025
  restoring atom style atomic from restart
  orthogonal box = (-0.053959293 -0.053959293 -0.053959293) to (139.56116 139.56116 139.56116)
  1 by 2 by 3 MPI processor grid
  pair style gw/zbl stores no restart info
  262144 atoms
  read_restart CPU = 0.346 seconds

pair_style      gw/zbl
pair_coeff      * * potentials/SiC.gw.zbl Si C
Reading gw/zbl potential file potentials/SiC.gw.zbl with DATE: 2016-05-06

mass            1 28.085
mass            2 12.011

neighbor        2.0 bin
neigh_modify    delay 0 every 1 check yes

thermo          100
thermo_style    custom step temp pe ke etotal press dt time
thermo_modify   flush yes

# core/boundary groups persist in the restart
fix             2 core_atoms nve
fix             3 boundary_atoms nvt temp 300.0 300.0 0.1
Resetting global fix info from restart file:
  fix style: nvt, fix ID: 3

timestep        0.00015
dump            d2 all custom 2000 outputs/traj_SiC_relaxext_${runid}.lammpstrj id type x y z
dump            d2 all custom 2000 outputs/traj_SiC_relaxext_1.lammpstrj id type x y z
run             40000
All restart file global fix info was re-assigned
Neighbor list info ...
  update: every = 1 steps, delay = 0 steps, check = yes
  max neighbors/atom: 2000, page size: 100000
  master list distance cutoff = 4.5
  ghost atom cutoff = 4.5
  binsize = 2.25, bins = 63 63 63
  1 neighbor lists, perpetual/occasional/extra = 1 0 0
  (1) pair gw/zbl, perpetual
      attributes: full, newton on
      pair build: full/bin/atomonly
      stencil: full/bin/3d
      bin: standard
Per MPI rank memory allocation (min/avg/max) = 18.65 | 18.77 | 18.99 Mbytes
   Step          Temp          PotEng         KinEng         TotEng         Press            Dt            Time     
     79001   300.15984     -1669645.8      10170.809     -1659475        1136.3829      0.00015        31.743702    
     79100   300.6263      -1669657        10186.615     -1659470.4      1144.2974      0.00015        31.758552    
     79200   300.43631     -1669645.9      10180.177     -1659465.7      1133.6303      0.00015        31.773552    
     79300   300.74037     -1669651.4      10190.48      -1659461        1105.1162      0.00015        31.788552    
     79400   300.40474     -1669635.6      10179.107     -1659456.4      1097.831       0.00015        31.803552    
     79500   300.38484     -1669630.5      10178.433     -1659452        1087.7193      0.00015        31.818552    
     79600   300.49937     -1669629.9      10182.314     -1659447.6      1076.8385      0.00015        31.833552    
     79700   300.56904     -1669627.9      10184.674     -1659443.3      1118.8609      0.00015        31.848552    
     79800   301.80232     -1669665.6      10226.464     -1659439.1      1115.4471      0.00015        31.863552    
     79900   301.69117     -1669658.5      10222.697     -1659435.8      1105.3988      0.00015        31.878552    
     80000   300.92037     -1669630        10196.579     -1659433.4      1086.1945      0.00015        31.893552    
     80100   300.349       -1669609        10177.218     -1659431.8      1071.7352      0.00015        31.908552    
     80200   301.17481     -1669635.5      10205.201     -1659430.3      1111.6346      0.00015        31.923552    
     80300   301.55515     -1669647.4      10218.088     -1659429.3      1127.7443      0.00015        31.938552    
     80400   301.05692     -1669630.4      10201.206     -1659429.2      1140.2311      0.00015        31.953552    
     80500   301.41218     -1669643        10213.244     -1659429.8      1058.0769      0.00015        31.968552    
     80600   301.1149      -1669634.2      10203.171     -1659431.1      1126.0144      0.00015        31.983552    
     80700   301.76364     -1669658        10225.153     -1659432.8      1129.3923      0.00015        31.998552    
     80800   301.39176     -1669648.1      10212.552     -1659435.6      1165.615       0.00015        32.013552    
     80900   301.43845     -1669653.4      10214.134     -1659439.3      1137.7472      0.00015        32.028552    
     81000   301.61923     -1669664        10220.26      -1659443.7      1117.6262      0.00015        32.043552    
     81100   301.28019     -1669657.4      10208.772     -1659448.6      1112.3372      0.00015        32.058552    
     81200   301.08886     -1669655.9      10202.288     -1659453.6      1152.5456      0.00015        32.073552    
     81300   300.4765      -1669640.2      10181.539     -1659458.6      1105.6388      0.00015        32.088552    
     81400   300.49491     -1669645.4      10182.163     -1659463.3      1104.5901      0.00015        32.103552    
     81500   300.77805     -1669658.7      10191.757     -1659467        1068.0772      0.00015        32.118552    
     81600   300.47185     -1669651.5      10181.381     -1659470.1      1115.4532      0.00015        32.133552    
     81700   300.19241     -1669644.8      10171.912     -1659472.9      1100.6101      0.00015        32.148552    
     81800   300.03419     -1669642.1      10166.551     -1659475.6      1115.3484      0.00015        32.163552    
     81900   300.72151     -1669667.8      10189.841     -1659477.9      1093.0676      0.00015        32.178552    
     82000   301.12017     -1669683.5      10203.349     -1659480.1      1063.2426      0.00015        32.193552    
     82100   300.90777     -1669678.5      10196.152     -1659482.4      1125.4525      0.00015        32.208552    
     82200   300.05328     -1669652        10167.198     -1659484.8      1087.6277      0.00015        32.223552    
     82300   300.27373     -1669661.6      10174.668     -1659486.9      1069.7251      0.00015        32.238552    
     82400   300.5535      -1669672.8      10184.148     -1659488.6      1060.7427      0.00015        32.253552    
     82500   300.72607     -1669680        10189.995     -1659490        1112.3824      0.00015        32.268552    
     82600   301.01116     -1669691        10199.655     -1659491.3      1116.5655      0.00015        32.283552    
     82700   300.50345     -1669675        10182.452     -1659492.6      1130.479       0.00015        32.298552    
     82800   300.48206     -1669675.3      10181.727     -1659493.6      1137.0225      0.00015        32.313552    
     82900   300.65669     -1669682.1      10187.644     -1659494.5      1164.2598      0.00015        32.328552    
     83000   301.20012     -1669701.2      10206.058     -1659495.2      1150.4057      0.00015        32.343552    
     83100   300.90093     -1669691.9      10195.92      -1659495.9      1147.9106      0.00015        32.358552    
     83200   300.15816     -1669667.2      10170.752     -1659496.4      1144.9298      0.00015        32.373552    
     83300   300.44571     -1669677        10180.495     -1659496.5      1143.4684      0.00015        32.388552    
     83400   300.65105     -1669683.9      10187.453     -1659496.5      1187.5183      0.00015        32.403552    
     83500   300.66678     -1669684.3      10187.986     -1659496.4      1196.0044      0.00015        32.418552    
     83600   300.53308     -1669679.4      10183.456     -1659496        1181.3595      0.00015        32.433552    
     83700   300.43301     -1669675.1      10180.065     -1659495.1      1168.983       0.00015        32.448552    
     83800   300.47231     -1669675.1      10181.397     -1659493.7      1180.5121      0.00015        32.463552    
     83900   300.7493      -1669682.3      10190.783     -1659491.5      1207.4189      0.00015        32.478552    
     84000   300.75473     -1669679.7      10190.966     -1659488.7      1186.2672      0.00015        32.493552    
     84100   300.82451     -1669678.8      10193.331     -1659485.5      1196.0605      0.00015        32.508552    
     84200   300.70915     -1669670.9      10189.422     -1659481.5      1215.8941      0.00015        32.523552    
     84300   300.43261     -1669656.8      10180.052     -1659476.8      1221.1401      0.00015        32.538552    
     84400   300.85674     -1669666.4      10194.423     -1659472        1200.1192      0.00015        32.553552    
     84500   300.91852     -1669664.5      10196.516     -1659468        1213.2038      0.00015        32.568552    
     84600   300.90092     -1669660.5      10195.92      -1659464.6      1177.8954      0.00015        32.583552    
     84700   300.42418     -1669641.3      10179.766     -1659461.5      1205.1628      0.00015        32.598552    
     84800   300.17141     -1669630.1      10171.201     -1659458.9      1182.0215      0.00015        32.613552    
     84900   300.32153     -1669632.5      10176.288     -1659456.2      1173.4258      0.00015        32.628552    
     85000   300.44328     -1669634        10180.413     -1659453.6      1172.5036      0.00015        32.643552    
     85100   300.77293     -1669642.7      10191.583     -1659451.1      1194.425       0.00015        32.658552    
     85200   300.74716     -1669639.6      10190.71      -1659448.8      1209.7645      0.00015        32.673552    
     85300   300.44496     -1669627.5      10180.47      -1659447        1216.2159      0.00015        32.688552    
     85400   300.32773     -1669621.8      10176.498     -1659445.3      1196.5113      0.00015        32.703552    
     85500   301.09037     -1669646.1      10202.339     -1659443.7      1212.497       0.00015        32.718552    
     85600   300.7758      -1669634.2      10191.68      -1659442.5      1220.7481      0.00015        32.733552    
     85700   300.68164     -1669630.2      10188.49      -1659441.7      1231.8565      0.00015        32.748552    
     85800   301.17943     -1669646.8      10205.357     -1659441.4      1203.5389      0.00015        32.763552    
     85900   300.76347     -1669632.7      10191.263     -1659441.4      1207.2641      0.00015        32.778552    
     86000   300.89696     -1669637.5      10195.786     -1659441.7      1179.7451      0.00015        32.793552    
     86100   300.75713     -1669633.2      10191.048     -1659442.2      1212.8029      0.00015        32.808552    
     86200   300.9271      -1669639.8      10196.807     -1659443        1230.6435      0.00015        32.823552    
     86300   301.43136     -1669658.2      10213.894     -1659444.3      1278.279       0.00015        32.838552    
     86400   301.53486     -1669663.9      10217.401     -1659446.5      1270.2669      0.00015        32.853552    
     86500   300.85935     -1669644.9      10194.511     -1659450.4      1202.8887      0.00015        32.868552    
     86600   300.66871     -1669644        10188.052     -1659455.9      1154.3745      0.00015        32.883552    
     86700   300.77261     -1669654.7      10191.572     -1659463.2      1199.8589      0.00015        32.898552    
     86800   301.05104     -1669672.8      10201.007     -1659471.8      1249.3086      0.00015        32.913552    
     86900   301.54034     -1669697.7      10217.587     -1659480.1      1256.6037      0.00015        32.928552    
     87000   301.14457     -1669690.9      10204.176     -1659486.7      1250.9099      0.00015        32.943552    
     87100   300.83158     -1669684.7      10193.571     -1659491.2      1178.394       0.00015        32.958552    
     87200   300.76768     -1669685.7      10191.405     -1659494.3      1207.4883      0.00015        32.973552    
     87300   300.36402     -1669674.1      10177.727     -1659496.4      1236.9173      0.00015        32.988552    
     87400   300.75692     -1669688.8      10191.041     -1659497.7      1210.7708      0.00015        33.003552    
     87500   300.70484     -1669688        10189.276     -1659498.7      1136.5517      0.00015        33.018552    
     87600   300.55533     -1669683.7      10184.21      -1659499.5      1185.9946      0.00015        33.033552    
     87700   300.80094     -1669692.2      10192.532     -1659499.7      1145.7094      0.00015        33.048552    
     87800   300.26102     -1669673.5      10174.237     -1659499.3      1145.4418      0.00015        33.063552    
     87900   300.3458      -1669675.6      10177.11      -1659498.5      1120.1045      0.00015        33.078552    
     88000   300.30485     -1669673.1      10175.722     -1659497.3      1127.5908      0.00015        33.093552    
     88100   300.2324      -1669669.1      10173.268     -1659495.8      1079.2793      0.00015        33.108552    
     88200   300.43479     -1669674        10180.125     -1659493.8      1142.1787      0.00015        33.123552    
     88300   301.12559     -1669694.9      10203.533     -1659491.3      1168.5337      0.00015        33.138552    
     88400   301.22492     -1669695.9      10206.899     -1659489        1131.7887      0.00015        33.153552    
     88500   300.33548     -1669663.9      10176.76      -1659487.1      1121.2         0.00015        33.168552    
     88600   300.71041     -1669674.5      10189.465     -1659485        1109.2968      0.00015        33.183552    
     88700   301.01239     -1669682.4      10199.697     -1659482.7      1120.6258      0.00015        33.198552    
     88800   300.80258     -1669673.1      10192.588     -1659480.5      1088.6478      0.00015        33.213552    
     88900   300.32219     -1669654.8      10176.31      -1659478.5      1067.0585      0.00015        33.228552    
     89000   299.92265     -1669638.7      10162.772     -1659475.9      1071.2225      0.00015        33.243552    
     89100   300.50301     -1669654.9      10182.437     -1659472.5      1077.9183      0.00015        33.258552    
     89200   300.76402     -1669660        10191.281     -1659468.7      1079.0651      0.00015        33.273552    
     89300   301.02348     -1669665.7      10200.073     -1659465.6      1105.2045      0.00015        33.288552    
     89400   301.10271     -1669665.7      10202.757     -1659462.9      1165.2495      0.00015        33.303552    
     89500   301.20755     -1669666.9      10206.31      -1659460.6      1184.1836      0.00015        33.318552    
     89600   301.26024     -1669667.2      10208.095     -1659459.1      1146.8446      0.00015        33.333552    
     89700   300.35547     -1669635.8      10177.438     -1659458.3      1140.3939      0.00015        33.348552    
     89800   300.28894     -1669633.1      10175.183     -1659457.9      1178.1181      0.00015        33.363552    
     89900   301.69009     -1669679.9      10222.661     -1659457.3      1214.2379      0.00015        33.378552    
     90000   301.32548     -1669667.5      10210.306     -1659457.2      1244.4168      0.00015        33.393552    
     90100   300.59447     -1669643.6      10185.536     -1659458        1225.0229      0.00015        33.408552    
     90200   300.91892     -1669656.5      10196.53      -1659460        1209.6227      0.00015        33.423552    
     90300   300.8189      -1669656.1      10193.141     -1659463        1169.1795      0.00015        33.438552    
     90400   300.75442     -1669658        10190.956     -1659467        1157.8073      0.00015        33.453552    
     90500   300.1964      -1669644.2      10172.047     -1659472.2      1160.3916      0.00015        33.468552    
     90600   300.74712     -1669668.5      10190.709     -1659477.8      1181.6562      0.00015        33.483552    
     90700   300.79143     -1669676.2      10192.21      -1659484        1173.7977      0.00015        33.498552    
     90800   300.36031     -1669667.7      10177.602     -1659490.1      1169.8758      0.00015        33.513552    
     90900   300.07536     -1669663.7      10167.946     -1659495.7      1140.2137      0.00015        33.528552    
     91000   299.79437     -1669658.5      10158.425     -1659500.1      1166.0406      0.00015        33.543552    
     91100   300.1799      -1669674.2      10171.489     -1659502.7      1177.6165      0.00015        33.558552    
     91200   300.22472     -1669677        10173.007     -1659504        1171.2094      0.00015        33.573552    
     91300   300.16142     -1669675.2      10170.862     -1659504.3      1157.4012      0.00015        33.588552    
     91400   299.82284     -1669663.6      10159.39      -1659504.2      1197.1578      0.00015        33.603552    
     91500   300.07979     -1669671.6      10168.096     -1659503.5      1129.8511      0.00015        33.618552    
     91600   300.11673     -1669671.6      10169.348     -1659502.3      1134.9751      0.00015        33.633552    
     91700   300.37788     -1669679.1      10178.197     -1659500.9      1115.7783      0.00015        33.648552    
     91800   300.68321     -1669688        10188.543     -1659499.5      1114.6378      0.00015        33.663552    
     91900   300.50772     -1669680.7      10182.597     -1659498.2      1107.329       0.00015        33.678552    
     92000   300.37405     -1669674.6      10178.067     -1659496.5      1155.7404      0.00015        33.693552    
     92100   300.30669     -1669670.4      10175.785     -1659494.6      1111.1772      0.00015        33.708552    
     92200   300.70305     -1669681.9      10189.215     -1659492.7      1155.5711      0.00015        33.723552    
     92300   300.60914     -1669676.7      10186.033     -1659490.6      1123.5093      0.00015        33.738552    
     92400   300.34629     -1669665.4      10177.127     -1659488.3      1168.2548      0.00015        33.753552    
     92500   300.01953     -1669651.7      10166.054     -1659485.6      1176.7942      0.00015        33.768552    
     92600   300.32134     -1669658.9      10176.281     -1659482.6      1158.7227      0.00015        33.783552    
     92700   300.69941     -1669668.5      10189.092     -1659479.4      1157.9076      0.00015        33.798552    
     92800   301.15855     -1669681.1      10204.65      -1659476.4      1218.9577      0.00015        33.813552    
     92900   300.95113     -1669671.9      10197.621     -1659474.3      1204.4946      0.00015        33.828552    
     93000   300.83451     -1669666.4      10193.67      -1659472.7      1189.9841      0.00015        33.843552    
     93100   300.94635     -1669669.1      10197.459     -1659471.6      1181.4011      0.00015        33.858552    
     93200   301.09562     -1669673.9      10202.517     -1659471.4      1181.234       0.00015        33.873552    
     93300   301.7489      -1669696.8      10224.653     -1659472.1      1173.8696      0.00015        33.888552    
     93400   301.3421      -1669684.9      10210.869     -1659474        1209.9228      0.00015        33.903552    
     93500   301.07902     -1669678.8      10201.955     -1659476.9      1198.2497      0.00015        33.918552    
     93600   301.15148     -1669685.1      10204.41      -1659480.7      1174.5562      0.00015        33.933552    
     93700   300.99124     -1669684.7      10198.98      -1659485.7      1182.4048      0.00015        33.948552    
     93800   301.01421     -1669691.4      10199.759     -1659491.6      1202.5308      0.00015        33.963552    
     93900   300.92372     -1669694.6      10196.692     -1659497.9      1279.6514      0.00015        33.978552    
     94000   300.41048     -1669683        10179.302     -1659503.7      1226.8057      0.00015        33.993552    
     94100   300.02632     -1669674.4      10166.284     -1659508.1      1236.2526      0.00015        34.008552    
     94200   300.42294     -1669690.7      10179.724     -1659511        1225.3487      0.00015        34.023552    
     94300   300.03527     -1669679.1      10166.588     -1659512.5      1209.545       0.00015        34.038552    
     94400   299.84483     -1669672.7      10160.135     -1659512.6      1143.9087      0.00015        34.053552    
     94500   299.34801     -1669655        10143.3       -1659511.7      1177.1023      0.00015        34.068552    
     94600   299.75225     -1669667.3      10156.998     -1659510.3      1200.6945      0.00015        34.083552    
     94700   300.14869     -1669679.2      10170.431     -1659508.7      1214.6479      0.00015        34.098552    
     94800   299.42402     -1669652.8      10145.876     -1659506.9      1194.4576      0.00015        34.113552    
     94900   300.20374     -1669676.8      10172.296     -1659504.5      1170.9698      0.00015        34.128552    
     95000   300.4607      -1669682.4      10181.003     -1659501.4      1213.7143      0.00015        34.143552    
     95100   300.3852      -1669676.5      10178.445     -1659498.1      1231.1646      0.00015        34.158552    
     95200   300.00137     -1669660.2      10165.439     -1659494.8      1225.9416      0.00015        34.173552    
     95300   300.10896     -1669660.5      10169.085     -1659491.5      1201.732       0.00015        34.188552    
     95400   300.90449     -1669684.1      10196.041     -1659488.1      1193.3159      0.00015        34.203552    
     95500   300.50494     -1669667.5      10182.502     -1659485        1219.7225      0.00015        34.218552    
     95600   299.7771      -1669640        10157.84      -1659482.2      1189.3397      0.00015        34.233552    
     95700   300.04748     -1669646.2      10167.002     -1659479.2      1219.4323      0.00015        34.248552    
     95800   300.98175     -1669674.9      10198.659     -1659476.3      1235.5606      0.00015        34.263552    
     95900   300.99227     -1669673.2      10199.016     -1659474.2      1247.3494      0.00015        34.278552    
     96000   300.4532      -1669653.6      10180.749     -1659472.8      1196.1969      0.00015        34.293552    
     96100   299.75051     -1669628.8      10156.939     -1659471.9      1233.0244      0.00015        34.308552    
     96200   300.48822     -1669652.8      10181.936     -1659470.8      1207.3715      0.00015        34.323552    
     96300   300.9126      -1669666.4      10196.316     -1659470.1      1213.9278      0.00015        34.338552    
     96400   300.78043     -1669661.7      10191.837     -1659469.9      1171.8517      0.00015        34.353552    
     96500   300.72869     -1669660.2      10190.084     -1659470.1      1185.2438      0.00015        34.368552    
     96600   300.60104     -1669656.7      10185.759     -1659471        1220.4962      0.00015        34.383552    
     96700   301.12821     -1669676.4      10203.622     -1659472.8      1179.7247      0.00015        34.398552    
     96800   300.69575     -1669664.7      10188.968     -1659475.7      1160.4448      0.00015        34.413552    
     96900   300.95835     -1669677.6      10197.866     -1659479.7      1152.8861      0.00015        34.428552    
     97000   301.17337     -1669690.1      10205.152     -1659484.9      1178.5177      0.00015        34.443552    
     97100   300.81905     -1669684.2      10193.146     -1659491.1      1177.1347      0.00015        34.458552    
     97200   300.32555     -1669674        10176.424     -1659497.5      1208.0959      0.00015        34.473552    
     97300   299.85442     -1669663.5      10160.46      -1659503        1205.2252      0.00015        34.488552    
     97400   301.02117     -1669707.1      10199.995     -1659507.1      1226.6705      0.00015        34.503552    
     97500   300.88476     -1669705.6      10195.372     -1659510.2      1181.8928      0.00015        34.518552    
     97600   299.59999     -1669664.5      10151.838     -1659512.7      1225.4475      0.00015        34.533552    
     97700   299.40952     -1669659.5      10145.384     -1659514.1      1195.2833      0.00015        34.548552    
     97800   300.609       -1669700.6      10186.028     -1659514.5      1239.2652      0.00015        34.563552    
     97900   300.49969     -1669697.2      10182.324     -1659514.9      1271.6431      0.00015        34.578552    
     98000   299.96497     -1669679.6      10164.206     -1659515.4      1262.4939      0.00015        34.593552    
     98100   299.90692     -1669678.2      10162.239     -1659516        1196.5425      0.00015        34.608552    
     98200   300.23125     -1669689.5      10173.228     -1659516.3      1239.5157      0.00015        34.623552    
     98300   300.81295     -1669709.5      10192.939     -1659516.5      1270.3959      0.00015        34.638552    
     98400   299.96255     -1669681.5      10164.124     -1659517.3      1241.5358      0.00015        34.653552    
     98500   299.69116     -1669672.8      10154.928     -1659517.8      1275.4134      0.00015        34.668552    
     98600   299.97225     -1669682.3      10164.452     -1659517.9      1242.0839      0.00015        34.683552    
     98700   300.1764      -1669689.2      10171.37      -1659517.8      1315.7817      0.00015        34.698552    
     98800   300.25462     -1669691.9      10174.02      -1659517.9      1271.3989      0.00015        34.713552    
     98900   300.04726     -1669684.7      10166.994     -1659517.7      1242.8272      0.00015        34.728552    
     99000   299.74252     -1669673.8      10156.668     -1659517.1      1215.1972      0.00015        34.743552    
     99100   300.43722     -1669696.2      10180.208     -1659516        1254.8059      0.00015        34.758552    
     99200   300.77066     -1669706.2      10191.506     -1659514.7      1233.9811      0.00015        34.773552    
     99300   300.6027      -1669699.2      10185.815     -1659513.4      1249.8467      0.00015        34.788552    
     99400   300.82938     -1669705.7      10193.496     -1659512.2      1214.5795      0.00015        34.803552    
     99500   300.2498      -1669685.2      10173.857     -1659511.4      1205.6245      0.00015        34.818552    
     99600   300.37381     -1669688.9      10178.059     -1659510.9      1160.0623      0.00015        34.833552    
     99700   299.88821     -1669672.1      10161.605     -1659510.5      1174.3732      0.00015        34.848552    
     99800   300.28598     -1669685.4      10175.083     -1659510.3      1167.6304      0.00015        34.863552    
     99900   300.40851     -1669689.5      10179.235     -1659510.3      1120.3026      0.00015        34.878552    
    100000   299.56897     -1669661.4      10150.787     -1659510.6      1136.0234      0.00015        34.893552    
    100100   299.96578     -1669675        10164.233     -1659510.7      1138.2901      0.00015        34.908552    
    100200   300.35079     -1669687.9      10177.279     -1659510.7      1165.5003      0.00015        34.923552    
    100300   300.57463     -1669695.8      10184.864     -1659511        1119.334       0.00015        34.938552    
    100400   300.28954     -1669686.7      10175.204     -1659511.5      1152.9338      0.00015        34.953552    
    100500   299.676       -1669666.3      10154.414     -1659511.8      1076.7798      0.00015        34.968552    
    100600   300.07718     -1669679.7      10168.008     -1659511.6      1083.6113      0.00015        34.983552    
    100700   300.27736     -1669685.9      10174.791     -1659511.1      1121.1529      0.00015        34.998552    
    100800   300.10574     -1669679.4      10168.975     -1659510.4      1180.6576      0.00015        35.013552    
    100900   300.00072     -1669674.9      10165.417     -1659509.5      1111.2081      0.00015        35.028552    
    101000   299.3628      -1669652.1      10143.801     -1659508.3      1084.4945      0.00015        35.043552    
    101100   299.89765     -1669668.1      10161.925     -1659506.1      1152.027       0.00015        35.058552    
    101200   300.22762     -1669676.4      10173.106     -1659503.3      1130.6109      0.00015        35.073552    
    101300   299.87534     -1669661.2      10161.168     -1659500        1146.58        0.00015        35.088552    
    101400   299.9773      -1669661        10164.623     -1659496.4      1163.0067      0.00015        35.103552    
    101500   299.74562     -1669649.5      10156.773     -1659492.8      1153.8516      0.00015        35.118552    
    101600   300.61964     -1669675.2      10186.389     -1659488.8      1161.3835      0.00015        35.133552    
    101700   300.32494     -1669661.5      10176.403     -1659485.1      1122.5019      0.00015        35.148552    
    101800   299.64464     -1669635.2      10153.351     -1659481.9      1215.3313      0.00015        35.163552    
    101900   300.78607     -1669670.7      10192.028     -1659478.7      1240.1688      0.00015        35.178552    
    102000   300.66475     -1669664.1      10187.918     -1659476.1      1240.3929      0.00015        35.193552    
    102100   300.59278     -1669659.6      10185.479     -1659474.1      1197.4252      0.00015        35.208552    
    102200   300.13619     -1669642.8      10170.007     -1659472.7      1199.337       0.00015        35.223552    
    102300   300.90897     -1669667.8      10196.193     -1659471.6      1210.7634      0.00015        35.238552    
    102400   301.29409     -1669680.3      10209.242     -1659471.1      1240.5699      0.00015        35.253552    
    102500   300.63731     -1669658.6      10186.988     -1659471.6      1190.6182      0.00015        35.268552    
    102600   300.73831     -1669663.7      10190.41      -1659473.2      1214.4508      0.00015        35.283552    
    102700   300.87628     -1669671.2      10195.085     -1659476.1      1197.8391      0.00015        35.298552    
    102800   301.08819     -1669682.1      10202.266     -1659479.8      1207.6268      0.00015        35.313552    
    102900   300.93091     -1669681.3      10196.936     -1659484.4      1190.4322      0.00015        35.328552    
    103000   300.93637     -1669686.7      10197.121     -1659489.6      1203.1212      0.00015        35.343552    
    103100   300.62765     -1669682        10186.66      -1659495.3      1195.8997      0.00015        35.358552    
    103200   300.66837     -1669688.5      10188.04      -1659500.5      1180.8901      0.00015        35.373552    
    103300   300.83222     -1669698        10193.592     -1659504.4      1163.4034      0.00015        35.388552    
    103400   300.96858     -1669705.4      10198.213     -1659507.2      1177.4         0.00015        35.403552    
    103500   300.55772     -1669693.8      10184.291     -1659509.5      1193.6589      0.00015        35.418552    
    103600   300.24719     -1669685        10173.768     -1659511.3      1222.1562      0.00015        35.433552    
    103700   300.18286     -1669684.2      10171.589     -1659512.6      1193.5375      0.00015        35.448552    
    103800   300.58939     -1669698.8      10185.364     -1659513.4      1192.9584      0.00015        35.463552    
    103900   300.48529     -1669695.6      10181.836     -1659513.8      1213.6992      0.00015        35.478552    
    104000   299.85631     -1669674.5      10160.524     -1659513.9      1261.2418      0.00015        35.493552    
    104100   299.77285     -1669671.7      10157.696     -1659514        1270.3836      0.00015        35.508552    
    104200   300.21024     -1669686.2      10172.517     -1659513.6      1285.9214      0.00015        35.523552    
    104300   300.78682     -1669705.1      10192.054     -1659513        1269.5847      0.00015        35.538552    
    104400   300.0654      -1669679.9      10167.609     -1659512.3      1285.6803      0.00015        35.553552    
    104500   299.67683     -1669665.3      10154.442     -1659510.9      1312.9178      0.00015        35.568552    
    104600   300.14281     -1669679        10170.232     -1659508.8      1296.3793      0.00015        35.583552    
    104700   300.15593     -1669677.1      10170.676     -1659506.4      1311.5852      0.00015        35.598552    
    104800   300.52102     -1669686.9      10183.047     -1659503.8      1309.5247      0.00015        35.613552    
    104900   300.23166     -1669674.4      10173.242     -1659501.2      1290.5896      0.00015        35.628552    
    105000   300.00144     -1669663.7      10165.441     -1659498.2      1277.6993      0.00015        35.643552    
    105100   299.98784     -1669659.9      10164.981     -1659494.9      1285.6904      0.00015        35.658552    
    105200   299.98245     -1669656.4      10164.798     -1659491.6      1295.1975      0.00015        35.673552    
    105300   300.57814     -1669673.3      10184.983     -1659488.3      1277.7423      0.00015        35.688552    
    105400   300.83207     -1669678.9      10193.587     -1659485.3      1298.9429      0.00015        35.703552    
    105500   300.53955     -1669666        10183.675     -1659482.3      1257.7726      0.00015        35.718552    
    105600   300.08301     -1669648.2      10168.205     -1659480        1231.1054      0.00015        35.733552    
    105700   300.31854     -1669654.5      10176.186     -1659478.3      1182.3908      0.00015        35.748552    
    105800   301.06687     -1669678.3      10201.543     -1659476.8      1195.0673      0.00015        35.763552    
    105900   300.45351     -1669656.4      10180.76      -1659475.6      1196.2995      0.00015        35.778552    
    106000   299.6968      -1669629.8      10155.119     -1659474.7      1202.4469      0.00015        35.793552    
    106100   300.41203     -1669653.2      10179.354     -1659473.8      1225.9371      0.00015        35.808552    
    106200   301.34069     -1669684        10210.822     -1659473.1      1189.9178      0.00015        35.823552    
    106300   300.41717     -1669652.7      10179.528     -1659473.1      1240.3778      0.00015        35.838552    
    106400   300.47681     -1669655        10181.549     -1659473.5      1224.2923      0.00015        35.853552    
    106500   301.23307     -1669681.4      10207.175     -1659474.2      1254.7139      0.00015        35.868552    
    106600   300.87861     -1669671.4      10195.164     -1659476.2      1293.0349      0.00015        35.883552    
    106700   300.856       -1669674.8      10194.398     -1659480.4      1307.1263      0.00015        35.898552    
    106800   300.23719     -1669660.3      10173.43      -1659486.8      1255.0047      0.00015        35.913552    
    106900   300.15993     -1669665        10170.812     -1659494.2      1262.5491      0.00015        35.928552    
    107000   300.09596     -1669670.1      10168.644     -1659501.4      1302.3312      0.00015        35.943552    
    107100   300.28586     -1669682.8      10175.079     -1659507.7      1289.8447      0.00015        35.958552    
    107200   300.39431     -1669691.5      10178.754     -1659512.7      1283.5415      0.00015        35.973552    
    107300   299.65562     -1669670.4      10153.723     -1659516.7      1306.3465      0.00015        35.988552    
    107400   299.8603      -1669679.9      10160.659     -1659519.2      1246.8099      0.00015        36.003552    
    107500   299.88736     -1669682.5      10161.576     -1659520.9      1271.1262      0.00015        36.018552    
    107600   300.30097     -1669697.2      10175.591     -1659521.7      1246.4294      0.00015        36.033552    
    107700   300.28153     -1669696.8      10174.932     -1659521.9      1263.0853      0.00015        36.048552    
    107800   299.99694     -1669687.1      10165.289     -1659521.8      1269.2745      0.00015        36.063552    
    107900   300.30881     -1669697.2      10175.857     -1659521.4      1226.106       0.00015        36.078552    
    108000   300.24937     -1669694.7      10173.842     -1659520.9      1191.8185      0.00015        36.093552    
    108100   300.53431     -1669703.5      10183.498     -1659520        1158.6022      0.00015        36.108552    
    108200   299.7428      -1669675.4      10156.678     -1659518.8      1199.5726      0.00015        36.123552    
    108300   299.84414     -1669677        10160.111     -1659516.9      1161.8612      0.00015        36.138552    
    108400   300.5178      -1669697.5      10182.938     -1659514.5      1206.5369      0.00015        36.153552    
    108500   300.44649     -1669692.7      10180.522     -1659512.2      1148.4467      0.00015        36.168552    
    108600   300.58833     -1669694.8      10185.328     -1659509.5      1144.5108      0.00015        36.183552    
    108700   300.18331     -1669678.3      10171.604     -1659506.7      1176.8558      0.00015        36.198552    
    108800   300.32769     -1669680.1      10176.496     -1659503.6      1215.9933      0.00015        36.213552    
    108900   300.88669     -1669696        10195.438     -1659500.6      1194.2735      0.00015        36.228552    
    109000   300.95587     -1669695.4      10197.782     -1659497.6      1175.2355      0.00015        36.243552    
    109100   300.47341     -1669675.8      10181.434     -1659494.4      1216.2804      0.00015        36.258552    
    109200   300.27152     -1669665.7      10174.593     -1659491.1      1232.3141      0.00015        36.273552    
    109300   300.69065     -1669677        10188.795     -1659488.2      1224.0429      0.00015        36.288552    
    109400   300.9792      -1669684.6      10198.573     -1659486        1229.625       0.00015        36.303552    
    109500   300.85038     -1669678.8      10194.208     -1659484.6      1274.065       0.00015        36.318552    
    109600   300.62426     -1669670.4      10186.545     -1659483.8      1238.101       0.00015        36.333552    
    109700   300.48338     -1669665.4      10181.772     -1659483.6      1237.5182      0.00015        36.348552    
    109800   300.36734     -1669662.1      10177.84      -1659484.3      1238.0295      0.00015        36.363552    
    109900   300.79696     -1669678.3      10192.398     -1659485.9      1243.9547      0.00015        36.378552    
    110000   301.31959     -1669698.7      10210.106     -1659488.5      1222.2389      0.00015        36.393552    
    110100   300.71867     -1669682.9      10189.745     -1659493.2      1228.9676      0.00015        36.408552    
    110200   299.89981     -1669661.9      10161.998     -1659499.9      1257.1695      0.00015        36.423552    
    110300   300.05122     -1669675        10167.128     -1659507.9      1240.0483      0.00015        36.438552    
    110400   300.17409     -1669687.1      10171.292     -1659515.8      1212.3604      0.00015        36.453552    
    110500   300.02376     -1669688.2      10166.198     -1659522        1229.4144      0.00015        36.468552    
    110600   300.00764     -1669691.8      10165.652     -1659526.1      1211.0066      0.00015        36.483552    
    110700   299.69772     -1669683.6      10155.15      -1659528.5      1179.6356      0.00015        36.498552    
    110800   299.07256     -1669663.6      10133.967     -1659529.6      1204.2296      0.00015        36.513552    
    110900   299.09625     -1669664.5      10134.769     -1659529.7      1181.8482      0.00015        36.528552    
    111000   299.85223     -1669689.2      10160.385     -1659528.9      1223.12        0.00015        36.543552    
    111100   299.73454     -1669683.6      10156.398     -1659527.2      1224.1935      0.00015        36.558552    
    111200   298.92958     -1669653.9      10129.122     -1659524.8      1244.3813      0.00015        36.573552    
    111300   299.44859     -1669668.3      10146.708     -1659521.6      1243.7665      0.00015        36.588552    
    111400   300.01223     -1669683.8      10165.807     -1659518        1270.9541      0.00015        36.603552    
    111500   299.90721     -1669676.4      10162.249     -1659514.1      1294.6694      0.00015        36.618552    
    111600   299.90727     -1669672        10162.251     -1659509.8      1209.3966      0.00015        36.633552    
    111700   299.61348     -1669657.4      10152.296     -1659505.1      1197.2855      0.00015        36.648552    
    111800   299.79542     -1669659.3      10158.461     -1659500.8      1205.8662      0.00015        36.663552    
    111900   300.15631     -1669667.6      10170.689     -1659496.9      1269.6853      0.00015        36.678552    
    112000   300.38071     -1669671.4      10178.293     -1659493.2      1212.406       0.00015        36.693552    
    112100   300.35057     -1669667.4      10177.272     -1659490.1      1219.5054      0.00015        36.708552    
    112200   300.47106     -1669669.1      10181.354     -1659487.7      1260.6877      0.00015        36.723552    
    112300   301.05301     -1669687        10201.074     -1659485.9      1219.0096      0.00015        36.738552    
    112400   300.43058     -1669664.7      10179.983     -1659484.7      1260.4443      0.00015        36.753552    
    112500   300.71646     -1669673.5      10189.67      -1659483.8      1189.7803      0.00015        36.768552    
    112600   301.20973     -1669690.1      10206.384     -1659483.7      1165.8402      0.00015        36.783552    
    112700   300.66157     -1669672        10187.81      -1659484.2      1190.2243      0.00015        36.798552    
    112800   300.62543     -1669671.9      10186.585     -1659485.3      1218.5544      0.00015        36.813552    
    112900   301.05751     -1669688.4      10201.226     -1659487.1      1240.7174      0.00015        36.828552    
    113000   301.06355     -1669691.4      10201.431     -1659490        1237.5671      0.00015        36.843552    
    113100   300.56682     -1669678.2      10184.599     -1659493.6      1226.632       0.00015        36.858552    
    113200   300.37628     -1669675.8      10178.143     -1659497.7      1186.7701      0.00015        36.873552    
    113300   300.28903     -1669676.9      10175.186     -1659501.7      1189.1328      0.00015        36.888552    
    113400   300.11068     -1669674.7      10169.143     -1659505.6      1236.9501      0.00015        36.903552    
    113500   300.22604     -1669682.2      10173.052     -1659509.1      1272.9779      0.00015        36.918552    
    113600   300.94829     -1669709.6      10197.525     -1659512.1      1214.4467      0.00015        36.933552    
    113700   300.88665     -1669710.2      10195.436     -1659514.7      1211.5133      0.00015        36.948552    
    113800   300.09658     -1669685.8      10168.665     -1659517.1      1253.6812      0.00015        36.963552    
    113900   300.22141     -1669692.1      10172.895     -1659519.2      1223.1874      0.00015        36.978552    
    114000   300.37823     -1669699.2      10178.209     -1659521        1224.674       0.00015        36.993552    
    114100   300.48815     -1669704.2      10181.933     -1659522.2      1271.2568      0.00015        37.008552    
    114200   300.1672      -1669694.4      10171.058     -1659523.3      1288.7183      0.00015        37.023552    
    114300   299.74852     -1669680.8      10156.871     -1659523.9      1281.0091      0.00015        37.038552    
    114400   300.10309     -1669692.6      10168.886     -1659523.7      1284.3907      0.00015        37.053552    
    114500   299.90916     -1669685.4      10162.314     -1659523.1      1270.0156      0.00015        37.068552    
    114600   299.68567     -1669677.1      10154.742     -1659522.4      1208.2372      0.00015        37.083552    
    114700   299.88617     -1669682.8      10161.536     -1659521.3      1215.4996      0.00015        37.098552    
    114800   299.60688     -1669671.8      10152.072     -1659519.8      1226.2988      0.00015        37.113552    
    114900   299.70269     -1669673.3      10155.319     -1659518        1198.8131      0.00015        37.128552    
    115000   300.26249     -1669690.4      10174.287     -1659516.2      1172.3539      0.00015        37.143552    
    115100   300.37764     -1669692.6      10178.189     -1659514.4      1222.341       0.00015        37.158552    
    115200   300.15811     -1669683.4      10170.75      -1659512.6      1228.1729      0.00015        37.173552    
    115300   299.82859     -1669670.4      10159.584     -1659510.8      1258.3816      0.00015        37.188552    
    115400   300.36356     -1669686.8      10177.712     -1659509.1      1218.7462      0.00015        37.203552    
    115500   300.36253     -1669685.2      10177.677     -1659507.5      1236.5248      0.00015        37.218552    
    115600   300.43681     -1669686.2      10180.194     -1659506        1298.4236      0.00015        37.233552    
    115700   300.31107     -1669680.4      10175.933     -1659504.5      1276.1603      0.00015        37.248552    
    115800   300.05189     -1669670.3      10167.151     -1659503.2      1313.689       0.00015        37.263552    
    115900   300.79822     -1669694.6      10192.44      -1659502.2      1274.1732      0.00015        37.278552    
    116000   300.57808     -1669686.3      10184.981     -1659501.4      1298.548       0.00015        37.293552    
    116100   300.4631      -1669681.9      10181.085     -1659500.8      1281.3967      0.00015        37.308552    
    116200   300.29467     -1669676.3      10175.377     -1659500.9      1290.3222      0.00015        37.323552    
    116300   300.39048     -1669680.1      10178.624     -1659501.4      1299.5314      0.00015        37.338552    
    116400   300.26777     -1669676.8      10174.466     -1659502.4      1338.0902      0.00015        37.353552    
    116500   299.89508     -1669665.1      10161.837     -1659503.3      1307.8446      0.00015        37.368552    
    116600   299.99552     -1669669        10165.241     -1659503.8      1281.0628      0.00015        37.383552    
    116700   299.96103     -1669667.9      10164.072     -1659503.8      1323.6175      0.00015        37.398552    
    116800   299.7808      -1669661.5      10157.965     -1659503.5      1347.0016      0.00015        37.413552    
    116900   299.88777     -1669664.5      10161.59      -1659502.9      1310.9936      0.00015        37.428552    
    117000   299.98445     -1669666.9      10164.866     -1659502        1307.1695      0.00015        37.443552    
    117100   299.85901     -1669661.5      10160.615     -1659500.9      1337.6641      0.00015        37.458552    
    117200   299.79929     -1669658.2      10158.592     -1659499.7      1340.7939      0.00015        37.473552    
    117300   299.86553     -1669659.4      10160.836     -1659498.5      1302.2443      0.00015        37.488552    
    117400   300.2884      -1669672.8      10175.165     -1659497.7      1270.2682      0.00015        37.503552    
    117500   300.19739     -1669669.2      10172.081     -1659497.1      1263.2691      0.00015        37.518552    
    117600   300.34474     -1669673.7      10177.074     -1659496.7      1264.9819      0.00015        37.533552    
    117700   300.26409     -1669670.7      10174.341     -1659496.4      1311.3471      0.00015        37.548552    
    117800   300.74671     -1669687.1      10190.695     -1659496.4      1296.6676      0.00015        37.563552    
    117900   301.49413     -1669713.1      10216.021     -1659497.1      1273.1369      0.00015        37.578552    
    118000   300.44985     -1669679.4      10180.636     -1659498.8      1264.8231      0.00015        37.593552    
    118100   299.37527     -1669645        10144.224     -1659500.8      1221.7145      0.00015        37.608552    
    118200   299.95929     -1669666.3      10164.013     -1659502.2      1218.6459      0.00015        37.623552    
    118300   300.56957     -1669687.9      10184.692     -1659503.2      1212.9018      0.00015        37.638552    
    118400   300.40511     -1669683.3      10179.12      -1659504.2      1298.3085      0.00015        37.653552    
    118500   300.7102      -1669695        10189.458     -1659505.5      1285.7281      0.00015        37.668552    
    118600   300.66563     -1669695.5      10187.947     -1659507.5      1239.0539      0.00015        37.683552    
    118700   299.98886     -1669674.6      10165.015     -1659509.6      1215.5272      0.00015        37.698552    
    118800   300.10759     -1669680.5      10169.038     -1659511.4      1227.0943      0.00015        37.713552    
    118900   300.99843     -1669712.1      10199.224     -1659512.9      1259.9908      0.00015        37.728552    
    119000   301.3057      -1669724        10209.636     -1659514.4      1301.81        0.00015        37.743552    
    119001   301.32958     -1669724.8      10210.445     -1659514.4      1301.0299      0.00015        37.743702    
Loop time of 2880.33 on 6 procs for 40000 steps with 262144 atoms

Performance: 0.180 ns/day, 133.348 hours/ns, 13.887 timesteps/s, 3.640 Matom-step/s
99.9% CPU use with 6 MPI tasks x 1 OpenMP threads

MPI task timing breakdown:
Section |  min time  |  avg time  |  max time  |%varavg| %total
---------------------------------------------------------------
Pair    | 2686.9     | 2724       | 2753.9     |  47.6 | 94.57
Neigh   | 0          | 0          | 0          |   0.0 |  0.00
Comm    | 79.706     | 109.62     | 146.65     | 236.9 |  3.81
Output  | 0.94851    | 1.2211     | 1.8086     |  25.6 |  0.04
Modify  | 34.279     | 35.045     | 36.109     |  12.7 |  1.22
Other   |            | 10.48      |            |       |  0.36

Nlocal:        43690.7 ave       44029 max       43315 min
Histogram: 1 1 0 0 1 1 0 0 0 2
Nghost:        19130.5 ave       19454 max       18814 min
Histogram: 2 0 0 0 1 1 0 0 0 2
Neighs:              0 ave           0 max           0 min
Histogram: 6 0 0 0 0 0 0 0 0 0
FullNghs:  1.46626e+06 ave 1.47808e+06 max 1.45345e+06 min
Histogram: 2 0 0 0 1 0 1 0 0 2

Total # of neighbors = 8797570
Ave neighs/atom = 33.560066
Neighbor list builds = 0
Dangerous builds = 0

write_restart   outputs/cascade_SiC_ext_${runid}.restart
write_restart   outputs/cascade_SiC_ext_1.restart
System init for write_restart ...
Total wall time: 0:48:01
